/*--------------------------------*- C++ -*----------------------------------*\
  =========                 |
  \\      /  F ield         | OpenFOAM: The Open Source CFD Toolbox
   \\    /   O peration     | Website:  https://openfoam.org
    \\  /    A nd           | Version:  6
     \\/     M anipulation  |
\*---------------------------------------------------------------------------*/
FoamFile
{
    version     2.0;
    format      ascii;
    class       volScalarField;
    location    "0";
    object      T;
}
// * * * * * * * * * * * * * * * * * * * * * * * * * * * * * * * * * * * * * //

dimensions      [0 0 0 1 0 0 0];

internalField   nonuniform List<scalar> 
1000
(
3.75061
3.75061
3.75061
3.75061
3.75061
3.75061
3.75061
3.75061
3.75061
3.75061
3.75061
3.75061
3.75061
3.75061
3.75061
3.75061
3.75061
3.75061
3.75061
3.75061
3.75061
3.75061
3.75061
3.75061
3.75061
3.75061
3.75061
3.75061
3.75061
3.75061
3.75061
3.75061
3.75061
3.75061
3.75061
3.75061
3.75061
3.75061
3.75061
3.75061
3.75061
3.75061
3.75061
3.75061
3.75061
3.75061
3.75061
3.75061
3.75061
3.75061
3.75061
3.75061
3.75061
3.75061
3.75061
3.75061
3.75061
3.75061
3.75061
3.75061
3.75061
3.75061
3.75061
3.75061
3.75061
3.75061
3.75061
3.75061
3.75061
3.75061
3.75061
3.75061
3.75061
3.75061
3.75061
3.75061
3.75061
3.75061
3.75061
3.75061
3.75061
3.75061
3.75061
3.75061
3.75061
3.75061
3.75061
3.75061
3.75061
3.75061
3.75061
3.75061
3.75061
3.75061
3.75061
3.75061
3.75061
3.75061
3.75061
3.75061
1.70834
1.69895
1.68876
1.67783
1.66622
1.654
1.64121
1.62792
1.61419
1.60009
1.58567
1.57099
1.55611
1.54108
1.52596
1.5108
1.49564
1.48053
1.46552
1.45064
1.43593
1.42143
1.40716
1.39316
1.37945
1.36606
1.353
1.34031
1.32799
1.31606
1.30454
1.29344
1.28277
1.27254
1.26275
1.25342
1.24454
1.23614
1.2282
1.22074
1.21375
1.20724
1.20121
1.19566
1.1906
1.18602
1.18193
1.17832
1.1752
1.17256
1.17041
1.16875
1.16757
1.16687
1.16667
1.16695
1.16771
1.16896
1.1707
1.17293
1.17564
1.17883
1.18251
1.18668
1.19133
1.19647
1.20209
1.20819
1.21477
1.22183
1.22936
1.23737
1.24585
1.25479
1.26419
1.27405
1.28435
1.29508
1.30625
1.31783
1.32982
1.34219
1.35494
1.36805
1.38149
1.39525
1.40929
1.42359
1.43813
1.45287
1.46777
1.4828
1.49792
1.51308
1.52824
1.54335
1.55836
1.57321
1.58785
1.60223
1.61628
1.62995
1.64316
1.65587
1.66801
1.67952
1.69034
1.70041
1.70968
1.7181
1.72561
1.73218
1.73777
1.74234
1.74586
1.74831
1.74969
1.74997
1.74915
1.74725
1.74428
1.74024
1.73518
1.72911
1.72207
1.71411
1.70527
1.69561
1.68516
1.674
1.66218
1.64976
1.63679
1.62335
1.60949
1.59527
1.58076
1.566
1.55107
1.536
1.52086
1.5057
1.49055
1.47547
1.4605
1.44567
1.43103
1.4166
1.40242
1.38851
1.37491
1.36163
1.34869
1.33612
1.32394
1.31214
1.30076
1.2898
1.27928
1.26919
1.25956
1.25038
1.24166
1.23341
1.22564
1.21833
1.21151
1.20516
1.19929
1.19391
1.18901
1.18459
1.18066
1.17722
1.17426
1.17178
1.1698
1.16829
1.16728
1.16675
1.16671
1.16715
1.16808
1.16949
1.1714
1.17378
1.17666
1.18002
1.18386
1.18819
1.19301
1.1983
1.20408
1.21035
1.21709
1.22431
1.232
1.24017
1.2488
1.2579
1.26745
1.27746
1.28791
1.29879
1.3101
1.32182
1.33394
1.34644
1.35931
1.37253
1.38608
1.39994
1.41407
1.42846
1.44307
1.45786
1.47281
1.48788
1.50301
1.51818
1.53333
1.54841
1.56337
1.57816
1.59272
1.607
1.62092
1.63444
1.6475
1.66002
1.67196
1.68324
1.69381
1.70362
1.71261
1.72073
1.72793
1.73417
1.73942
1.74364
1.74681
1.7489
1.7499
1.74982
1.74864
1.74637
1.74304
1.73865
1.73325
1.72685
1.7195
1.71124
1.70211
1.69218
1.68149
1.6701
1.65806
1.64545
1.63232
1.61873
1.60474
1.59042
1.57582
1.561
1.54601
1.53092
1.51576
1.5006
1.48547
1.47042
1.45549
1.44073
1.42615
1.4118
1.39771
1.3839
1.37041
1.35724
1.34443
1.33198
1.31992
1.30827
1.29703
1.28622
1.27584
1.2659
1.25642
1.2474
1.23884
1.23075
1.22313
1.21598
1.20932
1.20313
1.19743
1.19221
1.18747
1.18322
1.17945
1.17617
1.17337
1.17106
1.16924
1.1679
1.16705
1.16668
1.1668
1.16741
1.1685
1.17008
1.17214
1.1747
1.17773
1.18125
1.18526
1.18976
1.19473
1.20019
1.20614
1.21256
1.21946
1.22684
1.2347
1.24302
1.25181
1.26106
1.27077
1.28092
1.29152
1.30255
1.31399
1.32585
1.3381
1.35073
1.36372
1.37705
1.39071
1.40466
1.41888
1.43335
1.44802
1.46287
1.47787
1.49296
1.50811
1.52328
1.53841
1.55346
1.56837
1.58309
1.59756
1.61172
1.62552
1.63889
1.65177
1.6641
1.67583
1.68688
1.6972
1.70674
1.71544
1.72326
1.73014
1.73605
1.74096
1.74482
1.74763
1.74936
1.75
1.74954
1.748
1.74537
1.74168
1.73695
1.7312
1.72448
1.71682
1.70826
1.69886
1.68866
1.67773
1.66612
1.65389
1.64109
1.6278
1.61407
1.59996
1.58554
1.57086
1.55597
1.54095
1.52583
1.51066
1.49551
1.4804
1.46539
1.45051
1.4358
1.4213
1.40703
1.39303
1.37933
1.36594
1.35289
1.3402
1.32788
1.31596
1.30444
1.29334
1.28268
1.27245
1.26266
1.25333
1.24447
1.23606
1.22813
1.22067
1.21369
1.20718
1.20116
1.19562
1.19056
1.18598
1.18189
1.17829
1.17517
1.17254
1.17039
1.16873
1.16756
1.16687
1.16667
1.16695
1.16772
1.16898
1.17072
1.17295
1.17566
1.17886
1.18255
1.18672
1.19138
1.19652
1.20214
1.20824
1.21483
1.22189
1.22943
1.23744
1.24593
1.25487
1.26428
1.27414
1.28444
1.29518
1.30635
1.31794
1.32993
1.34231
1.35506
1.36817
1.38161
1.39537
1.40941
1.42372
1.43826
1.453
1.4679
1.48293
1.49805
1.51321
1.52837
1.54348
1.55849
1.57334
1.58798
1.60236
1.61641
1.63007
1.64328
1.65598
1.66812
1.67962
1.69043
1.7005
1.70976
1.71817
1.72568
1.73224
1.73782
1.74237
1.74589
1.74833
1.74969
1.74996
1.74914
1.74723
1.74425
1.7402
1.73513
1.72905
1.72201
1.71404
1.70519
1.69552
1.68507
1.6739
1.66207
1.64964
1.63667
1.62323
1.60936
1.59514
1.58063
1.56587
1.55093
1.53587
1.52073
1.50556
1.49042
1.47534
1.46037
1.44554
1.4309
1.41647
1.4023
1.38839
1.37479
1.36151
1.34858
1.33601
1.32383
1.31204
1.30066
1.28971
1.27919
1.26911
1.25948
1.2503
1.24159
1.23334
1.22557
1.21827
1.21145
1.2051
1.19924
1.19386
1.18897
1.18455
1.18063
1.17719
1.17423
1.17176
1.16978
1.16828
1.16727
1.16675
1.16671
1.16716
1.16809
1.16951
1.17142
1.17381
1.17668
1.18005
1.1839
1.18823
1.19305
1.19835
1.20414
1.2104
1.21715
1.22437
1.23207
1.24024
1.24888
1.25798
1.26754
1.27755
1.288
1.29889
1.3102
1.32192
1.33405
1.34655
1.35943
1.37265
1.3862
1.40006
1.4142
1.42859
1.4432
1.45799
1.47295
1.48801
1.50315
1.51831
1.53346
1.54854
1.5635
1.57829
1.59285
1.60712
1.62105
1.63456
1.64761
1.66013
1.67206
1.68334
1.6939
1.7037
1.71269
1.7208
1.72799
1.73423
1.73946
1.74367
1.74683
1.74891
1.74991
1.74981
1.74862
1.74635
1.743
1.73861
1.73319
1.72679
1.71943
1.71116
1.70203
1.69209
1.68139
1.66999
1.65796
1.64534
1.6322
1.61861
1.60462
1.59029
1.57569
1.56087
1.54588
1.53078
1.51563
1.50046
1.48534
1.47029
1.45536
1.4406
1.42602
1.41168
1.39759
1.38378
1.37029
1.35712
1.34431
1.33187
1.31982
1.30817
1.29693
1.28612
1.27575
1.26582
1.25634
1.24732
1.23876
1.23068
1.22306
1.21592
1.20926
1.20308
1.19738
1.19216
1.18743
1.18318
1.17942
1.17614
1.17335
1.17104
1.16922
1.16789
1.16704
1.16668
1.16681
1.16742
1.16851
1.1701
1.17217
1.17472
1.17776
1.18129
1.1853
1.1898
1.19478
1.20024
1.20619
1.21262
1.21953
1.22691
1.23477
1.2431
1.25189
1.26115
1.27086
1.28102
1.29162
1.30265
1.3141
1.32596
1.33821
1.35084
1.36384
1.37717
1.39083
1.40479
1.41901
1.43348
1.44815
1.46301
1.478
1.49309
1.50825
1.52341
1.53854
1.55359
1.5685
1.58322
1.59768
1.61185
1.62564
1.63901
1.65188
1.66421
1.67593
1.68697
1.69729
1.70682
1.71551
1.72332
1.7302
1.7361
1.741
1.74485
1.74765
1.74937
1.75
1.74953
1.74798
1.74534
1.74164
1.7369
1.73115
1.72442
1.71675
1.70818
1.69877
1.68857
1.67763
1.66601
1.65377
1.64098
1.62768
1.61394
1.59984
1.58541
1.57073
1.55584
1.54081
1.52569
1.51053
1.49537
1.48027
1.46525
1.45038
1.43567
1.42117
1.40691
1.39291
1.37921
1.36582
1.35278
1.34009
1.32778
1.31586
1.30434
1.29325
1.28258
1.27236
1.26258
1.25325
1.24439
1.23599
1.22806
1.22061
1.21363
1.20713
1.20111
1.19557
1.19052
1.18595
1.18186
1.17826
1.17515
1.17252
1.17038
1.16872
1.16755
1.16687
1.16667
1.16696
1.16773
1.16899
1.17074
1.17297
1.17569
1.17889
1.18258
1.18676
1.19142
1.19656
1.20219
1.2083
1.21489
1.22196
1.2295
1.23752
1.246
1.25495
1.26436
1.27422
1.28453
1.29528
1.30645
1.31804
1.33003
1.34242
1.35517
1.36829
1.38173
1.39549
1.40954
1.42385
1.43839
1.45313
1.46804
1.48307
1.49819
1.51335
1.52851
1.54361
1.55862
1.57347
1.58811
1.60248
1.61653
1.63019
1.64339
1.65609
1.66822
1.67972
1.69052
1.70058
1.70984
1.71824
1.72574
1.73229
1.73786
1.74241
1.74591
1.74835
1.7497
1.74996
1.74913
1.74721
1.74422
1.74016
1.73508
1.72899
1.72194
1.71396
1.70511
1.69543
1.68497
1.6738
1.66196
1.64953
1.63656
1.62311
1.60924
1.59502
1.5805
1.56574
1.5508
1.53573
1.52059
1.50543
1.49028
1.4752
1.46023
1.44541
)
;

boundaryField
{
    inlet
    {
        type            fixedValue;
        value           uniform 3.75061;
    }
    outlet
    {
        type            fixedValue;
        value           uniform 1.4752;
    }
    empty
    {
        type            empty;
    }
}


// ************************************************************************* //
